ITEM: TIMESTEP
0
ITEM: NUMBER OF ATOMS
4608
ITEM: BOX BOUNDS pp pp pp
-1.9532111714571698e-01 3.9523321117145848e+01
-1.6915305391253455e-01 3.4228201053912649e+01
-2.1476581908455117e-01 4.3457965819084727e+01
ITEM: ATOMS id type xu yu zu 
2 2 1.2536 1.14515 0.175256 
578 2 1.30776 0.899672 5.70907 
3 2 0.0147636 1.71432 2.43189 
579 2 0.0587378 1.6742 7.91861 
21 2 5.09417 1.7992 2.55682 
597 2 4.99267 1.77429 7.92662 
4 1 1.16092 2.19519 1.34294 
5 2 0.650336 3.53047 0.635765 
580 1 1.09246 2.05658 6.73492 
581 2 0.531832 3.40931 6.02471 
22 1 6.15691 2.35265 1.49393 
23 2 5.51958 3.59994 0.754789 
598 1 6.06315 2.18439 6.8557 
599 2 5.62968 3.52042 6.10907 
6 2 0.762414 4.85909 3.93496 
7 1 1.30014 6.17669 3.13208 
582 2 0.526276 4.81372 9.27429 
583 1 1.13402 6.18514 8.68853 
24 2 5.51441 5.05522 3.88214 
25 1 6.17329 6.37195 3.1611 
600 2 5.59082 4.94787 9.39353 
601 1 6.17552 6.19266 8.67681 
8 2 0.127242 6.50392 2.05922 
584 2 0.10925 6.71487 7.53231 
26 2 5.06405 6.89467 2.09238 
602 2 5.08466 6.74684 7.66751 
9 2 1.41828 7.37801 4.16393 
585 2 1.22283 7.38552 9.81146 
10 2 3.15113 0.648974 4.02352 
11 1 3.64963 1.96867 3.23158 
586 2 3.1405 0.70237 9.32371 
587 1 3.55895 2.00569 8.57133 
12 2 2.55778 2.29218 2.04261 
588 2 2.54611 2.38805 7.38574 
13 2 3.86567 3.11806 4.33097 
589 2 3.68421 3.19351 9.64976 
15 2 3.78035 5.42839 0.161419 
590 1 4.67582 4.28327 5.07966 
591 2 3.82477 5.45496 5.77302 
16 2 2.69893 5.91532 2.46226 
592 2 2.57418 6.05383 8.00997 
17 1 3.72804 6.57825 1.36829 
18 2 2.99147 7.86329 0.71733 
593 1 3.66874 6.59133 6.94068 
594 2 3.15713 7.8939 6.16861 
1166 1 4.56043 4.28133 10.4232 
20 2 6.36957 1.18072 0.378982 
27 2 6.41367 7.44261 4.34579 
603 2 6.27786 7.27878 9.88996 
577 1 2.23485 -0.146216 5.02947 
596 2 6.22298 1.06913 5.70532 
1153 1 2.24557 0.0690397 10.4466 
38 2 11.2537 1.04377 0.33575 
614 2 11.3517 1.24178 5.61918 
39 2 9.92306 1.87046 2.49582 
615 2 9.99635 1.72069 7.85624 
40 1 11.0647 2.19081 1.38981 
41 2 10.5611 3.42414 0.567801 
616 1 11.0166 2.25634 6.79089 
617 2 10.3456 3.5336 6.27302 
42 2 10.5873 4.98749 4.06519 
43 1 11.2541 6.19967 3.23391 
618 2 10.4867 4.97885 9.37378 
619 1 11.0088 6.27497 8.62546 
44 2 10.251 6.53161 2.04751 
620 2 9.98893 6.8347 7.54351 
45 2 11.3494 7.46259 4.13804 
621 2 11.2764 7.35882 9.72176 
28 2 7.98823 0.693888 3.88702 
29 1 8.54492 2.06277 3.25827 
604 2 8.06678 0.512986 9.24479 
605 1 8.61299 1.88014 8.59535 
30 2 7.51752 2.63958 2.18621 
606 2 7.48387 2.34947 7.56401 
48 2 12.5121 2.27931 2.10667 
624 2 12.444 2.48411 7.53497 
31 2 8.7465 3.18537 4.32357 
607 2 8.89003 3.01644 9.76649 
33 2 8.67349 5.24255 0.424495 
608 1 9.50728 4.35549 5.08673 
609 2 8.70025 5.53132 5.69046 
34 2 7.62517 6.16275 2.57312 
610 2 7.56878 6.09464 7.85605 
52 2 12.6533 6.00466 2.53402 
628 2 12.4524 6.08756 7.90642 
35 1 8.72332 6.40373 1.43766 
36 2 8.15475 7.74737 0.659282 
611 1 8.57073 6.65742 6.80215 
612 2 7.99446 8.04378 6.30643 
1184 1 9.65127 4.20274 10.4968 
595 1 7.18438 -0.0339554 5.09371 
1171 1 7.16913 -0.0270092 10.4602 
1189 1 12.1655 -0.0201989 10.4422 
613 1 12.1836 0.00927858 4.99942 
1207 1 17.0695 -0.0937233 10.597 
622 2 13.0491 0.679055 9.29774 
46 2 13.1931 0.592636 3.87412 
54 2 13.1596 7.7998 0.806846 
630 2 13.079 7.75074 6.01472 
56 2 16.323 1.04458 0.0912754 
632 2 16.3294 1.05705 5.83227 
57 2 15.1258 1.82277 2.35689 
633 2 14.9353 1.87918 7.89684 
58 1 16.1491 2.28527 1.19177 
59 2 15.5692 3.6016 0.463162 
634 1 16.1646 2.24289 6.92629 
635 2 15.754 3.56187 6.14616 
60 2 15.7424 4.96821 3.99254 
61 1 16.2483 6.19086 3.21697 
636 2 15.5654 4.97528 9.45072 
637 1 16.0895 6.25864 8.69819 
62 2 15.1508 6.52534 2.06717 
638 2 15.0279 6.74587 7.61513 
63 2 16.4278 7.36749 4.32029 
639 2 16.3248 7.36298 9.78698 
47 1 13.7442 1.92603 3.12298 
623 1 13.5466 2.06283 8.5967 
64 2 17.8772 0.573307 3.80346 
65 1 18.531 1.86634 3.12664 
640 2 18.1279 0.715502 9.65638 
641 1 18.6205 2.02807 8.93387 
66 2 17.5517 2.3693 1.91173 
642 2 17.5055 2.35495 7.78126 
49 2 14.0376 3.06211 4.21177 
625 2 13.8424 3.1257 9.76433 
67 2 18.6306 3.0197 4.18229 
643 2 18.6125 3.19466 10.0376 
51 2 13.7592 5.39546 0.187534 
626 1 14.8069 4.22561 5.06389 
627 2 13.8753 5.35981 5.71835 
69 2 18.6942 5.30306 0.182039 
645 2 18.5483 5.14951 5.75847 
70 2 17.6238 6.15294 2.45305 
646 2 17.5083 6.01065 8.0404 
53 1 13.7051 6.44854 1.40003 
629 1 13.5902 6.49703 6.81834 
71 1 18.6332 6.46565 1.26724 
72 2 18.0942 7.80771 0.517982 
647 1 18.5076 6.27397 6.84514 
648 2 18.0598 7.68647 6.20701 
1202 1 14.6893 4.22433 10.4951 
631 1 17.0403 -0.0993237 5.02995 
644 1 19.4875 4.14435 4.95859 
1220 1 19.5885 4.25375 10.6422 
721 1 2.30551 8.5017 4.97454 
1297 1 2.09722 8.65339 10.3682 
146 2 1.18795 9.66058 0.286761 
722 2 1.41279 9.67003 5.59152 
740 2 6.2752 9.8005 5.51815 
147 2 0.191274 10.503 2.5575 
723 2 0.132332 10.1839 7.88152 
165 2 5.09078 10.4854 2.51264 
741 2 4.98992 10.368 7.74793 
148 1 1.2088 10.8388 1.41349 
149 2 0.744928 12.168 0.695173 
724 1 1.15261 10.7751 6.76773 
725 2 0.506699 12.1173 6.14045 
166 1 6.22094 10.8505 1.46367 
167 2 5.71328 12.1525 0.669877 
742 1 6.11209 10.8861 6.71468 
743 2 5.55388 12.2378 6.05553 
150 2 0.63313 13.4644 3.79875 
151 1 1.28456 14.8383 3.17867 
726 2 0.720424 13.5621 9.38342 
727 1 1.22159 14.8776 8.71216 
168 2 5.52732 13.4937 3.84986 
744 2 5.72579 13.5163 9.23901 
745 1 6.22641 14.8845 8.55125 
152 2 0.134378 15.325 2.09224 
728 2 0.16876 15.2606 7.52602 
170 2 5.16237 15.4449 2.15557 
746 2 5.152 15.1855 7.37236 
153 2 1.35595 15.9055 4.37251 
729 2 1.19275 16.1089 9.74119 
154 2 3.21027 9.08472 3.78267 
155 1 3.69076 10.4942 3.19326 
730 2 3.04052 9.27984 9.25167 
731 1 3.63396 10.5204 8.53038 
156 2 2.654 10.8892 2.09722 
732 2 2.57749 11.0762 7.43949 
157 2 3.77101 11.6495 4.35219 
733 2 3.91267 11.765 9.63406 
159 2 4.04416 14.0926 0.192306 
734 1 4.61193 12.8985 5.00545 
735 2 3.72777 14.0766 5.63775 
160 2 2.69744 14.6619 2.48385 
736 2 2.68073 14.7808 8.06563 
161 1 3.81107 15.1695 1.40073 
162 2 3.26326 16.4077 0.579975 
737 1 3.70693 15.2104 6.81213 
738 2 3.10172 16.5173 6.24647 
169 1 6.18094 14.8058 3.23145 
171 2 6.41539 15.9458 4.37282 
747 2 6.22228 16.0636 9.61269 
164 2 6.31417 9.61573 0.452352 
1310 1 4.72013 12.8476 10.3798 
739 1 7.15789 8.62742 5.04675 
757 1 12.1922 8.55998 4.97625 
1315 1 7.15083 8.5093 10.4815 
1333 1 12.0863 8.45728 10.5351 
182 2 11.4004 9.73233 0.227798 
758 2 11.3891 9.69399 5.72938 
183 2 10.2248 10.4429 2.4596 
759 2 10.0138 10.1813 7.86411 
184 1 11.242 10.881 1.38583 
185 2 10.638 12.2124 0.728123 
760 1 11.2076 10.7515 6.92157 
761 2 10.6606 12.0972 6.23077 
186 2 10.6936 13.5393 3.97761 
187 1 11.1976 14.8272 3.23984 
762 2 10.4536 13.549 9.28434 
763 1 11.0899 14.9269 8.76853 
188 2 10.0878 15.2425 2.10903 
764 2 10.171 15.3471 7.52597 
189 2 11.2025 16.0356 4.39756 
765 2 11.2326 15.9747 9.92631 
172 2 8.17626 9.18665 3.86334 
173 1 8.79219 10.5194 3.1871 
748 2 8.00418 9.13105 9.26863 
749 1 8.58726 10.3793 8.49418 
174 2 7.67063 10.9386 2.0882 
750 2 7.52815 10.9024 7.39862 
192 2 12.6831 11.0267 2.06694 
768 2 12.5017 10.9631 7.73423 
175 2 8.94869 11.6707 4.32055 
751 2 8.79301 11.549 9.60694 
177 2 8.79458 13.9487 0.259608 
752 1 9.84772 12.8388 5.11474 
753 2 8.8767 13.9536 5.7589 
178 2 7.55444 14.6001 2.42378 
754 2 7.64248 14.7818 7.89913 
196 2 12.6062 14.6232 2.55474 
772 2 12.5992 14.8049 8.15358 
179 1 8.68179 15.0344 1.36248 
180 2 8.12594 16.3246 0.627926 
755 1 8.74348 15.1917 6.80847 
756 2 8.28519 16.5372 6.15178 
1328 1 9.57306 12.7365 10.3451 
198 2 13.0275 16.4079 0.776648 
766 2 13.1834 9.12449 9.45077 
213 2 18.822 14.0255 0.219173 
1351 1 17.1648 8.5552 10.4771 
775 1 17.2136 8.49637 5.08069 
1364 1 19.5339 12.8098 10.5377 
771 2 13.7124 13.9055 5.89463 
770 1 14.537 12.8455 5.09568 
195 2 13.7737 13.9547 0.302851 
1346 1 14.5637 12.839 10.5601 
790 2 17.3884 14.6952 7.92152 
774 2 13.1062 16.4169 6.15608 
792 2 18.0109 16.4253 6.12948 
791 1 18.4659 15.1182 6.88672 
787 2 18.6548 11.7193 9.72157 
216 2 17.8132 16.3589 0.70223 
215 1 18.6139 15.1348 1.37231 
773 1 13.5933 15.175 6.98353 
197 1 13.6215 15.0688 1.42049 
214 2 17.5449 14.5387 2.42047 
190 2 13.0853 9.30323 3.85801 
789 2 18.6103 14.0252 5.75719 
200 2 16.2161 9.51752 0.232828 
776 2 16.2242 9.63074 5.76138 
201 2 15.2133 10.3668 2.59372 
777 2 15.0328 10.3851 7.97889 
202 1 16.212 10.7231 1.29471 
203 2 15.5637 12.0083 0.617048 
778 1 16.0734 10.8263 6.80004 
779 2 15.5574 12.0749 6.0728 
204 2 15.5194 13.5546 4.00347 
205 1 16.1863 14.7881 3.18811 
780 2 15.3761 13.6632 9.47937 
781 1 16.0455 14.9812 8.81106 
206 2 15.0913 15.232 2.05868 
782 2 15.016 15.3974 7.6675 
207 2 16.2299 15.981 4.26647 
783 2 16.2288 16.1397 9.80807 
191 1 13.7538 10.5658 3.20641 
767 1 13.6685 10.5113 8.76798 
208 2 18.1105 9.27188 4.00311 
209 1 18.681 10.5635 3.14425 
784 2 17.8663 9.30208 9.25062 
785 1 18.5036 10.5633 8.612 
210 2 17.6337 10.9354 1.95798 
786 2 17.4927 11.0421 7.48883 
193 2 13.7428 11.6508 4.3829 
769 2 13.8329 11.6695 9.82568 
211 2 18.7255 11.758 4.15683 
788 1 19.5156 12.9379 4.96739 
1154 2 1.3866 1.18091 11.1797 
1730 2 1.29332 1.0243 16.6563 
1155 2 0.0893138 1.73158 13.3989 
1731 2 0.0749549 1.91211 18.948 
1173 2 5.07596 1.7175 13.2776 
1749 2 5.03017 1.82921 18.79 
1156 1 1.191 2.2515 12.3314 
1157 2 0.525356 3.56513 11.59 
1732 1 1.12374 2.23799 17.7572 
1733 2 0.511172 3.48697 16.901 
1174 1 6.16925 2.33158 12.2434 
1175 2 5.53048 3.61083 11.4953 
1750 1 6.16596 2.29035 17.7021 
1751 2 5.73333 3.6428 17.0235 
1158 2 0.646117 4.86565 14.7507 
1159 1 1.12739 6.29433 14.1322 
1734 2 0.521913 4.98112 20.3441 
1735 1 1.2458 6.21245 19.5755 
1176 2 5.62613 4.97909 14.6321 
1177 1 6.11485 6.32254 13.9787 
1752 2 5.67607 4.92429 20.3953 
1753 1 6.16461 6.23362 19.598 
1160 2 0.0220541 6.68034 13.0022 
1736 2 0.138698 6.66829 18.5387 
1178 2 5.05867 6.81348 12.8924 
1754 2 5.09729 6.67998 18.4861 
1161 2 1.24839 7.4286 15.1854 
1737 2 1.42314 7.41128 20.6254 
1162 2 3.19734 0.505823 14.8572 
1163 1 3.73865 1.83444 14.1338 
1738 2 3.0021 0.75185 20.2139 
1739 1 3.62826 2.00239 19.5506 
1164 2 2.62741 2.35479 13.094 
1740 2 2.57093 2.46426 18.4242 
1165 2 4.04288 2.99399 15.2099 
1741 2 3.79172 3.12298 20.7246 
1167 2 3.68619 5.41424 11.1807 
1742 1 4.83536 4.25535 15.8145 
1743 2 3.93522 5.36648 16.5559 
1168 2 2.65539 6.15176 13.4166 
1744 2 2.6581 5.95088 18.8581 
1169 1 3.67717 6.64582 12.2107 
1170 2 3.08362 7.93979 11.464 
1745 1 3.71035 6.44502 17.7141 
1746 2 3.0579 7.73864 17.0043 
2318 1 4.61269 4.26049 21.4719 
1755 2 6.34867 7.36694 20.7561 
1748 2 6.29199 1.06774 16.6767 
1179 2 6.36455 7.41768 15.1522 
1729 1 2.14838 -0.0805756 15.8923 
2305 1 2.20204 -0.046116 21.3705 
1172 2 6.4885 1.26702 11.0841 
1190 2 11.3615 1.19442 11.159 
1766 2 11.2287 1.07117 16.677 
1191 2 10.0674 1.8353 13.3665 
1767 2 9.99311 1.86369 18.9221 
1192 1 11.1987 2.31108 12.3143 
1193 2 10.645 3.58741 11.6168 
1768 1 11.0808 2.21884 17.8213 
1769 2 10.6772 3.55441 17.1008 
1194 2 10.5475 4.93353 14.8798 
1195 1 11.1104 6.24751 14.1557 
1770 2 10.463 5.0054 20.358 
1771 1 11.1238 6.26784 19.615 
1196 2 10.1163 6.74475 12.958 
1772 2 10.146 6.83123 18.4976 
1197 2 11.2673 7.41936 15.2869 
1773 2 11.3937 7.42672 20.6932 
1180 2 8.04398 0.699937 14.7167 
1181 1 8.68689 2.04994 14.1107 
1756 2 8.15753 0.596187 20.2249 
1757 1 8.61191 1.99884 19.6245 
1182 2 7.46361 2.56474 13.0962 
1758 2 7.55149 2.45867 18.5045 
1200 2 12.6238 2.38051 13.1358 
1776 2 12.5185 2.32285 18.481 
1183 2 8.8753 3.06461 15.3747 
1759 2 8.84763 3.04817 20.7931 
1185 2 8.74289 5.20764 11.2646 
1760 1 9.69698 4.24404 16.0171 
1761 2 8.88321 5.32653 16.8114 
1186 2 7.58534 6.18462 13.2959 
1762 2 7.59121 6.13409 18.8358 
1204 2 12.5884 5.98703 13.5585 
1780 2 12.5461 5.98939 18.8836 
1187 1 8.71086 6.46569 12.2322 
1188 2 8.28169 7.78104 11.4474 
1763 1 8.68811 6.59257 17.8354 
1764 2 8.14258 7.88556 17.037 
2336 1 9.58275 4.25933 21.4973 
1782 2 13.0389 7.86401 17.1086 
1747 1 7.14116 -0.0155635 15.8635 
2323 1 7.13719 -0.0918585 21.339 
1765 1 12.1593 -0.132366 16.0524 
1206 2 12.8355 7.66378 11.7269 
2341 1 12.1478 -0.046698 21.4398 
1198 2 13.0695 0.524251 14.9305 
1774 2 13.1673 0.603541 20.3948 
1796 1 19.5721 4.14608 15.9864 
1208 2 16.1918 1.10567 11.2117 
1784 2 16.1446 0.961785 16.7692 
1209 2 15.1962 1.76957 13.5383 
1785 2 15 1.92941 18.9546 
1210 1 16.1561 2.20838 12.3753 
1211 2 15.6482 3.55748 11.5963 
1786 1 16.0624 2.23053 17.7699 
1787 2 15.5302 3.55122 17.0278 
1212 2 15.6683 4.83708 14.8054 
1213 1 16.0575 6.26602 14.1603 
1788 2 15.4887 5.00168 20.417 
1789 1 16.0361 6.25244 19.5919 
1214 2 14.9804 6.65054 13.0296 
1790 2 15.0472 6.69206 18.4109 
1215 2 16.0617 7.37119 15.3166 
1791 2 16.1126 7.56684 20.5946 
1199 1 13.728 1.82034 14.2814 
1775 1 13.5549 1.93802 19.6636 
1216 2 17.8182 0.643777 14.9516 
1217 1 18.6005 1.84607 14.205 
1792 2 17.8461 0.779187 20.3564 
1793 1 18.5293 2.06144 19.6153 
1218 2 17.6086 2.37453 13.0454 
1794 2 17.5405 2.44999 18.4073 
1201 2 13.8132 2.9746 15.3275 
1777 2 13.5854 3.2032 20.6858 
1219 2 18.8571 2.98951 15.2652 
1795 2 18.7508 3.16609 20.7161 
1203 2 13.7925 5.28257 11.282 
1778 1 14.6567 4.17921 15.8887 
1779 2 13.7765 5.3961 16.6016 
1221 2 18.818 5.54971 11.2163 
1797 2 18.7038 5.20218 16.8021 
1222 2 17.449 6.10667 13.4127 
1798 2 17.5075 5.96212 19.0793 
1205 1 13.5777 6.42068 12.3875 
1781 1 13.6386 6.53526 17.7313 
1223 1 18.592 6.6296 12.3944 
1224 2 18.0976 7.98349 11.6009 
1799 1 18.5207 6.39006 17.9206 
1800 2 17.8827 7.65285 17.118 
2354 1 14.5093 4.22026 21.4452 
1783 1 17.0099 -0.168188 16.008 
2359 1 17.0641 -0.0904422 21.3966 
2372 1 19.6418 4.23933 21.4725 
1873 1 2.13438 8.49864 15.9481 
2449 1 2.20962 8.57487 21.3222 
1298 2 1.27504 9.73636 11.1001 
1874 2 1.30528 9.645 16.6346 
1892 2 6.41332 9.82468 16.5838 
1299 2 0.0910036 10.3783 13.4328 
1875 2 0.0975158 10.2421 18.875 
1317 2 5.18417 10.4374 13.3677 
1893 2 5.14968 10.3321 18.8226 
1300 1 1.18261 10.7852 12.3531 
1301 2 0.717899 12.1827 11.5712 
1876 1 1.11281 10.7395 17.7465 
1877 2 0.586796 12.1804 17.0982 
1318 1 6.18367 10.8875 12.2392 
1319 2 5.62687 12.1584 11.4701 
1894 1 6.20457 10.9165 17.7267 
1895 2 5.51029 12.2099 17.105 
1302 2 0.549394 13.425 14.8145 
1303 1 1.24858 14.7734 14.0878 
1878 2 0.795501 13.5149 20.3013 
1879 1 1.27375 14.8006 19.4655 
1320 2 5.54395 13.464 14.7198 
1321 1 6.07616 14.8009 14.089 
1896 2 5.62634 13.5555 20.1063 
1897 1 6.26552 14.9286 19.4682 
1304 2 0.176856 15.3021 12.9666 
1880 2 0.0933835 15.0909 18.4417 
1322 2 4.98128 15.3873 13.058 
1898 2 5.1718 15.3403 18.4255 
1305 2 1.51162 15.9578 15.1381 
1881 2 1.27246 15.9238 20.6511 
1306 2 3.17004 9.1035 14.7597 
1307 1 3.75698 10.4872 14.1493 
1882 2 3.12768 9.2146 20.2364 
1883 1 3.68021 10.5426 19.4852 
1308 2 2.58152 10.9534 13.0409 
1884 2 2.57103 10.9137 18.4285 
1309 2 3.82499 11.6484 15.2784 
1885 2 3.82064 11.6926 20.5767 
1311 2 3.89906 13.9969 11.1123 
1886 1 4.68249 12.8376 15.9408 
1887 2 3.81483 14.0545 16.5456 
1312 2 2.58515 14.5464 13.3211 
1888 2 2.70343 14.6848 18.8335 
1313 1 3.62187 15.0939 12.2271 
1314 2 3.00306 16.4549 11.569 
1889 1 3.81932 15.246 17.6912 
1890 2 3.12688 16.5429 17.0944 
2462 1 4.68525 12.8536 21.2273 
2588 1 39.582 12.8678 21.4484 
1316 2 6.31394 9.66573 11.1918 
1323 2 6.29464 15.8461 15.3077 
1899 2 6.36616 16.0793 20.5929 
1891 1 7.2376 8.56301 15.9122 
2467 1 7.24276 8.53763 21.3681 
2485 1 12.1941 8.62896 21.4275 
1909 1 12.1145 8.57054 16.0443 
2053 1 12.057 17.0118 15.9913 
2480 1 9.68039 12.8563 21.4797 
1334 2 11.2869 9.7464 11.0684 
1910 2 11.2464 9.69274 16.7274 
1335 2 10.1353 10.4207 13.3991 
1911 2 9.99565 10.5095 18.8769 
1336 1 11.1694 10.9149 12.2106 
1337 2 10.5752 12.1655 11.4743 
1912 1 11.1037 10.8916 17.7624 
1913 2 10.7061 12.2197 16.9011 
1338 2 10.5142 13.4784 14.6154 
1339 1 11.0572 14.8703 14.0029 
1914 2 10.5273 13.4792 20.2575 
1915 1 11.0991 14.8814 19.6584 
1340 2 9.98097 15.2669 12.8976 
1916 2 10.0993 15.2679 18.4282 
1341 2 11.2402 15.8973 15.2565 
1917 2 11.1121 15.9125 20.8401 
1324 2 8.22363 9.18295 14.7624 
1325 1 8.66716 10.54 14.046 
1900 2 8.07035 9.24071 20.1678 
1901 1 8.61743 10.6415 19.5821 
1326 2 7.6453 11.0388 12.9323 
1902 2 7.60865 11.1724 18.4519 
1344 2 12.5339 10.954 12.9889 
1920 2 12.4801 11.0903 18.5434 
1327 2 8.75117 11.691 15.1775 
1903 2 8.77274 11.6882 20.8292 
1329 2 8.70522 13.8554 11.1005 
1904 1 9.6695 12.8505 15.7668 
1905 2 8.88407 14.0994 16.4322 
1330 2 7.42871 14.6011 13.3313 
1906 2 7.67953 14.6736 18.7524 
1348 2 12.5705 14.7654 13.4687 
1924 2 12.6078 14.717 19.0353 
1331 1 8.55287 15.0217 12.1668 
1332 2 7.91419 16.2943 11.4867 
1907 1 8.69353 15.1081 17.6028 
1908 2 8.09266 16.4903 17.0007 
1342 2 12.9935 9.28384 14.8452 
1921 2 13.8182 11.7025 20.8068 
1918 2 13.0515 9.29829 20.2993 
1350 2 13.1357 16.4539 11.659 
1926 2 13.0802 16.3411 17.066 
1923 2 13.8361 13.8729 16.7867 
1927 1 17.0133 8.50047 16.074 
2503 1 16.9745 8.65053 21.3953 
1922 1 14.6299 12.8383 15.9562 
1940 1 19.5135 12.7767 16.0453 
2516 1 19.6121 12.8538 21.5298 
1347 2 13.7367 13.92 11.385 
1939 2 18.7471 11.7282 20.8778 
1941 2 18.6828 13.9705 16.6827 
2498 1 14.703 12.8853 21.4798 
1944 2 17.9693 16.4625 17.0958 
1943 1 18.6425 15.1808 17.8064 
1363 2 18.7364 11.5853 15.3863 
1368 2 17.9359 16.5318 11.6544 
1367 1 18.5526 15.171 12.2938 
1925 1 13.6744 15.0839 17.8603 
1365 2 18.6496 13.9753 11.1654 
1349 1 13.7274 15.1201 12.3817 
1942 2 17.5686 14.7506 18.9309 
1366 2 17.506 14.6467 13.4334 
1352 2 16.293 9.70462 11.1747 
1928 2 16.3012 9.68862 16.7827 
1353 2 15.0225 10.4563 13.4244 
1929 2 14.9908 10.5922 18.8289 
1354 1 16.1185 10.7836 12.3158 
1355 2 15.5858 12.1502 11.6527 
1930 1 16.1167 10.9378 17.7698 
1931 2 15.6906 12.2028 16.9789 
1356 2 15.3854 13.5441 14.6939 
1357 1 16.1131 14.8618 14.1351 
1932 2 15.5014 13.5252 20.2099 
1933 1 16.134 14.889 19.5632 
1358 2 15.1045 15.3493 13.0376 
1934 2 15.1051 15.3524 18.4816 
1359 2 16.2232 15.9207 15.2743 
1935 2 16.2294 16.0183 20.7529 
1343 1 13.6168 10.5813 14.1476 
1919 1 13.5594 10.6593 19.6089 
1360 2 17.9638 9.19618 14.9 
1361 1 18.6075 10.4901 14.2127 
1936 2 17.9378 9.33426 20.3306 
1937 1 18.6121 10.6357 19.6874 
1362 2 17.561 10.9074 13.049 
1938 2 17.5463 11.1868 18.5435 
1345 2 13.8176 11.6424 15.3165 
2306 2 1.37651 1.06912 22.1047 
2882 2 1.28503 1.1074 27.629 
2307 2 -0.00889583 1.6855 24.2917 
2883 2 0.158184 1.80316 29.8376 
2325 2 5.01705 1.56371 24.2141 
2901 2 5.20258 1.76164 29.8195 
2308 1 1.13037 2.18039 23.2333 
2309 2 0.678379 3.5341 22.4935 
2884 1 1.22008 2.23788 28.7341 
2885 2 0.62806 3.57939 28.0712 
2326 1 6.08991 2.15883 23.1365 
2327 2 5.48548 3.54035 22.6035 
2902 1 6.19306 2.27601 28.6719 
2903 2 5.54268 3.59829 28.0678 
2310 2 0.648877 5.01212 25.8585 
2311 1 1.1913 6.33855 25.1584 
2886 2 0.658679 4.8216 31.4042 
2887 1 1.23932 6.07389 30.5503 
2328 2 5.54277 4.97783 25.7965 
2329 1 6.06811 6.28157 25.0468 
2904 2 5.59888 4.97253 31.2939 
2905 1 6.12086 6.23488 30.5146 
2312 2 0.129394 6.7038 23.9804 
2888 2 0.160959 6.57776 29.5592 
2330 2 5.04522 6.82192 23.9307 
2906 2 5.02568 6.54095 29.3685 
2313 2 1.35765 7.47762 26.1928 
2889 2 1.42437 7.25623 31.67 
2314 2 3.07876 0.562572 25.8799 
2315 1 3.65782 1.77912 25.0642 
2890 2 3.16109 0.632615 31.2023 
2891 1 3.73939 1.94329 30.4879 
2316 2 2.49948 2.25365 24.0439 
2892 2 2.66264 2.362 29.4376 
2317 2 3.96321 3.00425 26.1413 
2893 2 3.86233 3.12966 31.5583 
2319 2 3.78286 5.4314 22.1824 
2894 1 4.63193 4.20046 26.8605 
2895 2 3.64762 5.27525 27.5275 
2320 2 2.5763 6.1529 24.409 
2896 2 2.62924 5.86041 29.8295 
2321 1 3.63489 6.6026 23.288 
2322 2 3.12127 7.89671 22.4894 
2897 1 3.58064 6.39874 28.7334 
2898 2 3.03902 7.74169 28.1074 
3470 1 4.74549 4.19909 32.3628 
2907 2 6.12621 7.40955 31.6296 
2900 2 6.35173 1.24979 27.5024 
2324 2 6.29662 1.11075 21.9483 
3457 1 2.28405 -0.0655684 32.4117 
2331 2 6.16944 7.40264 26.2398 
2881 1 2.05986 -0.121874 27.0092 
2342 2 11.2584 1.18511 22.0701 
2918 2 11.1261 0.968052 27.7066 
2343 2 9.96124 1.76808 24.2414 
2919 2 10.0556 1.84042 29.9487 
2344 1 11.0562 2.35496 23.2094 
2345 2 10.622 3.69604 22.6075 
2920 1 11.0646 2.18164 28.6985 
2921 2 10.488 3.41474 27.8874 
2346 2 10.5954 5.00536 25.8479 
2347 1 11.1299 6.31317 25.1356 
2922 2 10.4349 4.92744 31.3277 
2923 1 11.0658 6.17493 30.6336 
2348 2 10.0603 6.76063 24.0106 
2924 2 10.0144 6.6521 29.477 
2349 2 11.2525 7.45907 26.2417 
2925 2 11.1806 7.40108 31.73 
2332 2 8.08613 0.598498 25.7287 
2333 1 8.59233 1.98556 25.013 
2908 2 8.06679 0.604428 31.2091 
2909 1 8.62308 1.96022 30.5589 
2334 2 7.47377 2.34668 23.874 
2910 2 7.59525 2.43605 29.3898 
2352 2 12.4542 2.45218 24.0238 
2928 2 12.4748 2.46574 29.4178 
2335 2 8.75258 3.11005 26.0933 
2911 2 8.59012 3.00523 31.7155 
2337 2 8.75125 5.34369 22.2836 
2912 1 9.57336 4.22073 26.8302 
2913 2 8.7047 5.27239 27.6914 
2338 2 7.55958 6.19448 24.4049 
2914 2 7.57837 6.13697 29.8864 
2356 2 12.5273 6.1742 24.377 
2932 2 12.5456 5.96611 30.0528 
2339 1 8.68619 6.59279 23.3 
2340 2 8.17957 7.92725 22.4851 
2915 1 8.58994 6.46636 28.7223 
2916 2 8.13207 7.77365 27.9284 
3488 1 9.51347 4.11247 32.3529 
3619 1 7.11966 8.40048 32.3897 
2917 1 12.0388 -0.0474237 26.9625 
2899 1 7.17624 -0.0147611 26.9278 
2350 2 12.8708 0.728385 25.8522 
2926 2 12.9968 0.615175 31.1336 
2934 2 12.9023 7.78079 28.21 
3493 1 12.0818 -0.167502 32.2601 
3475 1 7.1112 -0.0421853 32.3297 
3506 1 14.621 4.24807 32.3725 
2358 2 13.0752 7.9335 22.5705 
2360 2 16.1633 0.956002 22.2111 
2936 2 16.2087 1.12579 27.6491 
2361 2 14.9348 1.75586 24.4513 
2937 2 14.9291 1.81024 29.7666 
2362 1 15.9759 2.12375 23.2982 
2363 2 15.3602 3.43045 22.5252 
2938 1 16.1006 2.23554 28.7611 
2939 2 15.6098 3.59069 28.0904 
2364 2 15.4468 4.97808 25.7883 
2365 1 16.0945 6.24792 25.0035 
2940 2 15.4559 4.90254 31.2175 
2941 1 16.0923 6.24166 30.5206 
2366 2 15.0837 6.67861 23.8696 
2942 2 15.0021 6.66191 29.449 
2367 2 16.2262 7.3341 26.1595 
2943 2 16.2095 7.34194 31.7084 
2351 1 13.5054 1.97483 25.1718 
2927 1 13.5648 1.96552 30.5552 
2368 2 17.9853 0.556569 25.8687 
2369 1 18.5235 1.81879 25.0974 
2944 2 18.1719 0.460984 31.2386 
2945 1 18.6152 1.84097 30.5181 
2370 2 17.4006 2.29709 24.0264 
2946 2 17.4584 2.25041 29.5918 
2353 2 13.7644 3.07719 26.2874 
2929 2 13.7243 3.05312 31.7121 
2371 2 18.6824 3.00718 26.2163 
2947 2 18.813 2.99392 31.5867 
2355 2 13.5952 5.41184 22.106 
2930 1 14.684 4.26411 26.9681 
2931 2 13.6623 5.27561 27.7653 
2373 2 18.7584 5.35425 22.2733 
2949 2 18.5511 5.32215 27.5843 
2374 2 17.4169 6.06732 24.2959 
2950 2 17.4917 6.14369 29.8306 
2357 1 13.5753 6.54635 23.2196 
2933 1 13.5186 6.43779 28.9133 
2375 1 18.4885 6.57438 23.1781 
2376 2 17.922 7.86695 22.3885 
2951 1 18.5519 6.51978 28.7065 
2952 2 17.9766 7.84322 28.0461 
3524 1 19.5719 4.20835 32.2375 
3511 1 17.1128 -0.114025 32.2398 
2935 1 17.0725 -0.120746 27.0341 
2948 1 19.4609 4.24081 26.8512 
3025 1 2.20312 8.50415 26.9609 
3601 1 2.10627 8.48871 32.3199 
2450 2 1.33878 9.78758 21.9738 
3026 2 1.33023 9.64461 27.7568 
2451 2 0.167508 10.245 24.385 
3027 2 -0.00384635 10.4821 29.9565 
2469 2 5.00809 10.4645 24.2042 
3045 2 4.95662 10.5022 29.8981 
2452 1 1.15899 10.746 23.2107 
2453 2 0.551038 12.1262 22.636 
3028 1 1.07951 10.8187 28.8445 
3029 2 0.484934 12.036 28.0363 
2470 1 6.11944 10.7858 23.0778 
2471 2 5.6526 12.068 22.2124 
3046 1 6.14337 10.8155 28.8354 
3047 2 5.6654 12.0742 27.982 
2454 2 0.604344 13.5026 25.7429 
2455 1 1.2986 14.7614 25.0521 
3030 2 0.700816 13.4233 31.5665 
3031 1 1.18458 14.6864 30.6806 
2472 2 5.54245 13.6223 25.8537 
2473 1 6.15732 14.8191 25.027 
3048 2 5.66988 13.3317 31.336 
3049 1 6.3657 14.6721 30.7084 
2456 2 0.145094 15.2556 23.9953 
3032 2 0.146341 15.0204 29.5016 
2474 2 5.15128 15.2855 23.8261 
3050 2 5.31679 15.1621 29.6462 
2457 2 1.61559 15.7562 26.2704 
3033 2 1.22973 15.9079 31.7916 
2458 2 3.10109 9.25362 25.8788 
2459 1 3.60683 10.5376 25.0529 
3034 2 2.88758 9.34249 31.235 
3035 1 3.4839 10.7172 30.5794 
2460 2 2.52428 10.8969 23.9439 
3036 2 2.49365 11.1826 29.4511 
2461 2 3.82227 11.6973 26.1702 
3037 2 3.60578 11.7922 31.6931 
2463 2 3.94806 13.9297 22.0216 
3038 1 4.66791 12.8344 26.9394 
3039 2 3.88158 13.9012 27.8307 
2464 2 2.70093 14.4845 24.2687 
3040 2 2.67679 14.79 30.0089 
2465 1 3.68643 15.0398 23.1334 
2466 2 2.9879 16.27 22.4438 
3041 1 3.85106 15.0834 28.9597 
3042 2 3.40528 16.3499 28.1372 
3614 1 4.61868 12.8552 32.3998 
2475 2 6.33315 16.0717 25.9784 
3051 2 6.38663 15.8297 31.8876 
2468 2 6.2939 9.63179 21.9736 
3044 2 6.35002 9.67832 27.7519 
3169 1 2.45226 16.9643 26.946 
3043 1 7.10011 8.52434 26.8641 
3061 1 12.1203 8.5239 27.0514 
3637 1 12.0825 8.54761 32.4445 
2486 2 11.2857 9.72448 22.1725 
3062 2 11.1905 9.69833 27.6275 
2487 2 9.99428 10.3329 24.3752 
3063 2 9.97512 10.2937 29.8177 
2488 1 11.1025 10.8474 23.3425 
2489 2 10.5508 12.1949 22.6299 
3064 1 11.0879 10.773 28.773 
3065 2 10.5658 12.1509 28.0724 
2490 2 10.6706 13.5336 25.7976 
2491 1 11.1095 14.8508 25.1321 
3066 2 10.5632 13.691 31.2887 
3067 1 11.1174 14.9625 30.5212 
2492 2 9.98914 15.2913 24.1178 
3068 2 10.1048 15.349 29.2594 
2493 2 11.3153 16.0165 26.3087 
3069 2 11.1609 16.1026 31.6406 
2476 2 7.9473 9.23599 25.653 
2477 1 8.54346 10.56 24.9832 
3052 2 8.17378 9.0978 31.3493 
3053 1 8.65161 10.5066 30.6682 
2478 2 7.5083 11.004 23.8296 
3054 2 7.45712 11.0322 29.6753 
2496 2 12.5642 10.9919 24.013 
3072 2 12.53 10.8648 29.4452 
2479 2 8.77047 11.719 26.0483 
3055 2 8.94455 11.6392 31.7408 
2481 2 8.86335 14.0846 22.1768 
3056 1 9.64894 12.8045 26.8433 
3057 2 8.86235 14.0083 27.4781 
2482 2 7.54859 14.5538 24.3699 
3058 2 7.69277 14.4392 29.909 
2500 2 12.5021 14.7602 24.3243 
3076 2 12.57 14.7215 29.9507 
2483 1 8.63134 15.1137 23.3557 
2484 2 8.05359 16.449 22.6259 
3059 1 8.66714 14.9838 28.6927 
3060 2 7.89798 16.2163 28.0388 
3632 1 9.64947 12.9447 32.3864 
3078 2 13.0307 16.5817 28.1233 
2494 2 13.0275 9.29696 25.9282 
3091 2 18.7321 11.6457 31.7301 
2515 2 18.8042 11.6233 26.2322 
2502 2 13.0961 16.4591 22.4409 
2517 2 18.7532 13.9829 22.261 
3655 1 17.1283 8.52075 32.3057 
3079 1 17.0671 8.46103 26.9167 
3093 2 18.8707 13.9671 27.5395 
3075 2 13.8132 14.0533 27.6636 
3074 1 14.5861 12.9042 26.9163 
3096 2 18.0449 16.3846 27.9841 
3095 1 18.6618 15.0967 28.7447 
2520 2 17.9204 16.4616 22.7137 
2499 2 13.95 14.0747 22.1952 
2519 1 18.588 15.1619 23.3961 
3650 1 14.6136 12.7711 32.2408 
2518 2 17.5625 14.6976 24.5157 
3077 1 13.6592 15.2014 28.8038 
2501 1 13.6305 15.1775 23.2199 
3070 2 13.0574 9.17396 31.3225 
3094 2 17.5724 14.6399 29.8616 
2504 2 16.134 9.83748 22.2087 
3080 2 16.2961 9.68541 27.5844 
2505 2 15.0427 10.5152 24.4729 
3081 2 15.0817 10.2215 29.8229 
2506 1 16.1054 10.9259 23.366 
2507 2 15.6635 12.2347 22.6256 
3082 1 16.101 10.8166 28.7255 
3083 2 15.529 12.1006 27.9949 
2508 2 15.5409 13.5242 25.8635 
2509 1 16.0769 14.8397 25.1946 
3084 2 15.4416 13.4724 31.0649 
3085 1 16.1481 14.8074 30.5442 
2510 2 14.9749 15.3623 24.0989 
3086 2 15.1048 15.3735 29.4275 
2511 2 16.1491 15.9227 26.3802 
3087 2 16.3698 15.8465 31.7322 
2495 1 13.6169 10.5875 25.1783 
3071 1 13.6318 10.4006 30.5007 
2512 2 18.0041 9.19057 25.789 
2513 1 18.5766 10.5124 25.1469 
3088 2 17.9758 9.15294 31.0569 
3089 1 18.585 10.5726 30.5482 
2514 2 17.536 11.038 24.0116 
3090 2 17.5081 11.1029 29.4424 
2497 2 13.6693 11.7922 26.2696 
3073 2 13.87 11.602 31.5279 
3668 1 19.4745 12.8701 32.4466 
3458 2 1.37971 1.11137 33.0974 
4034 2 1.30454 1.09713 38.455 
3459 2 0.0701089 1.49068 35.3115 
4035 2 0.165777 1.58163 40.7352 
3477 2 5.04815 1.73473 35.3207 
4053 2 5.10564 1.51287 40.6922 
3460 1 1.11291 2.0812 34.3312 
3461 2 0.519414 3.44981 33.7168 
4036 1 1.23275 2.12768 39.6806 
4037 2 0.474869 3.44194 39.1378 
3478 1 6.09431 2.16606 34.2324 
3479 2 5.61444 3.4273 33.4769 
4055 2 5.54773 3.50842 39.0365 
3462 2 0.793536 4.78099 36.9881 
3463 1 1.27138 6.10309 36.1663 
4038 2 0.855169 4.75934 42.1127 
4039 1 1.26247 6.17734 41.4996 
3480 2 5.44395 4.94128 36.7507 
4056 2 5.64592 4.81692 42.1627 
4057 1 6.22709 6.18105 41.4657 
3464 2 0.140512 6.42125 35.0033 
4040 2 0.150433 6.35252 40.3642 
3482 2 5.10263 6.61582 34.832 
4058 2 5.18485 6.69299 40.3871 
3465 2 1.35373 7.30088 37.2854 
4041 2 1.26191 7.41488 42.5185 
3466 2 3.03696 0.531199 36.6935 
3467 1 3.63971 1.89754 36.0863 
4042 2 3.00436 0.583613 42.1006 
4043 1 3.72472 1.80572 41.4205 
3468 2 2.5618 2.37786 35.0093 
4044 2 2.67946 2.35688 40.2567 
3469 2 3.85243 2.91468 37.2553 
4045 2 3.84424 3.03148 42.4801 
3471 2 3.89602 5.35906 33.0637 
4046 1 4.60528 4.1667 37.9284 
4047 2 3.799 5.46536 38.4908 
3472 2 2.66669 6.04181 35.3493 
4048 2 2.70643 6.15645 40.8489 
3473 1 3.62718 6.5044 34.107 
3474 2 3.03788 7.81556 33.4513 
4049 1 3.70193 6.56469 39.6809 
4050 2 3.09005 7.92961 39.0359 
14 1 4.57422 4.19703 -0.448323 
4054 1 6.15396 2.14901 39.5847 
3481 1 6.05917 6.14976 36.0389 
3483 2 6.32912 7.30114 37.153 
4059 2 6.27684 7.27695 42.6971 
3476 2 6.23501 1.02074 33.0574 
4052 2 6.358 1.08362 38.4146 
4033 1 2.07926 -0.126579 37.8129 
1 1 2.04751 -0.060492 -0.419912 
3494 2 11.185 0.934481 33.012 
4070 2 11.2228 1.09735 38.4708 
3495 2 9.97543 1.72554 35.2494 
4071 2 10.0613 1.68844 40.7596 
3496 1 11.0263 2.12393 34.1301 
3497 2 10.5012 3.38239 33.3875 
4072 1 11.0527 2.17414 39.6349 
4073 2 10.5256 3.55828 39.0124 
3498 2 10.5135 4.88502 36.6853 
3499 1 11.0568 6.18041 36.0082 
4074 2 10.4946 4.87316 42.1584 
4075 1 11.1456 6.1841 41.4383 
3500 2 9.99755 6.61986 34.9009 
4076 2 10.1044 6.61109 40.3524 
3501 2 11.168 7.39588 37.0889 
4077 2 11.3559 7.3594 42.6077 
3484 2 8.14244 0.401612 36.629 
3485 1 8.59606 1.81495 36.0211 
4060 2 8.02568 0.600458 42.1291 
4061 1 8.60668 1.87037 41.4083 
3486 2 7.50902 2.24621 34.9395 
4062 2 7.56815 2.32608 40.202 
3504 2 12.4332 2.30946 34.8175 
4080 2 12.5046 2.32486 40.2649 
3487 2 8.73347 2.98294 37.1966 